+ 0.236637 3 4 exp 500 ------- 0 0.0 8.0 0 0
- 0.236637 3 4 exp 500 ------- 0 0.0 8.0 0 0
+ 0.267887 3 4 exp 500 ------- 0 0.0 8.0 1 1
- 0.267887 3 4 exp 500 ------- 0 0.0 8.0 1 1
r 0.287887 3 4 exp 500 ------- 0 0.0 8.0 0 0
+ 0.299137 3 4 exp 500 ------- 0 0.0 8.0 2 2
- 0.299137 3 4 exp 500 ------- 0 0.0 8.0 2 2
r 0.319137 3 4 exp 500 ------- 0 0.0 8.0 1 1
+ 0.330387 3 4 exp 500 ------- 0 0.0 8.0 3 3
- 0.330387 3 4 exp 500 ------- 0 0.0 8.0 3 3
r 0.350387 3 4 exp 500 ------- 0 0.0 8.0 2 2
+ 0.361637 3 4 exp 500 ------- 0 0.0 8.0 4 4
- 0.361637 3 4 exp 500 ------- 0 0.0 8.0 4 4
r 0.381637 3 4 exp 500 ------- 0 0.0 8.0 3 3
+ 0.392887 3 4 exp 500 ------- 0 0.0 8.0 5 5
- 0.392887 3 4 exp 500 ------- 0 0.0 8.0 5 5
+ 0.410153 3 4 exp 500 ------- 1 1.0 9.0 0 7
r 0.412887 3 4 exp 500 ------- 0 0.0 8.0 4 4
+ 0.424137 3 4 exp 500 ------- 0 0.0 8.0 6 6
- 0.424137 3 4 exp 500 ------- 1 1.0 9.0 0 7
+ 0.441403 3 4 exp 500 ------- 1 1.0 9.0 1 9
r 0.444137 3 4 exp 500 ------- 0 0.0 8.0 5 5
+ 0.455387 3 4 exp 500 ------- 0 0.0 8.0 7 8
- 0.455387 3 4 exp 500 ------- 0 0.0 8.0 6 6
+ 0.472653 3 4 exp 500 ------- 1 1.0 9.0 2 10
r 0.475387 3 4 exp 500 ------- 1 1.0 9.0 0 7
+ 0.486637 3 4 exp 500 ------- 0 0.0 8.0 8 11
- 0.486637 3 4 exp 500 ------- 1 1.0 9.0 1 9
+ 0.503903 3 4 exp 500 ------- 1 1.0 9.0 3 12
r 0.506637 3 4 exp 500 ------- 0 0.0 8.0 6 6
+ 0.517887 3 4 exp 500 ------- 0 0.0 8.0 9 14
- 0.517887 3 4 exp 500 ------- 0 0.0 8.0 7 8
+ 0.535153 3 4 exp 500 ------- 1 1.0 9.0 4 13
r 0.537887 3 4 exp 500 ------- 1 1.0 9.0 1 9
+ 0.549137 3 4 exp 500 ------- 0 0.0 8.0 10 16
- 0.549137 3 4 exp 500 ------- 1 1.0 9.0 2 10
+ 0.566403 3 4 exp 500 ------- 1 1.0 9.0 5 15
r 0.569137 3 4 exp 500 ------- 0 0.0 8.0 7 8
+ 0.580387 3 4 exp 500 ------- 0 0.0 8.0 11 19
- 0.580387 3 4 exp 500 ------- 0 0.0 8.0 8 11
+ 0.597653 3 4 exp 500 ------- 1 1.0 9.0 6 17
r 0.600387 3 4 exp 500 ------- 1 1.0 9.0 2 10
+ 0.611637 3 4 exp 500 ------- 0 0.0 8.0 12 22
- 0.611637 3 4 exp 500 ------- 1 1.0 9.0 3 12
+ 0.628903 3 4 exp 500 ------- 1 1.0 9.0 7 18
r 0.631637 3 4 exp 500 ------- 0 0.0 8.0 8 11
+ 0.642887 3 4 exp 500 ------- 0 0.0 8.0 13 24
- 0.642887 3 4 exp 500 ------- 0 0.0 8.0 9 14
+ 0.660153 3 4 exp 500 ------- 1 1.0 9.0 8 20
r 0.662887 3 4 exp 500 ------- 1 1.0 9.0 3 12
+ 0.674137 3 4 exp 500 ------- 0 0.0 8.0 14 27
- 0.674137 3 4 exp 500 ------- 1 1.0 9.0 4 13
+ 0.691403 3 4 exp 500 ------- 1 1.0 9.0 9 21
r 0.694137 3 4 exp 500 ------- 0 0.0 8.0 9 14
+ 0.705387 3 4 exp 500 ------- 0 0.0 8.0 15 30
- 0.705387 3 4 exp 500 ------- 0 0.0 8.0 10 16
+ 0.722653 3 4 exp 500 ------- 1 1.0 9.0 10 23
r 0.725387 3 4 exp 500 ------- 1 1.0 9.0 4 13
+ 0.736637 3 4 exp 500 ------- 0 0.0 8.0 16 32
- 0.736637 3 4 exp 500 ------- 1 1.0 9.0 5 15
+ 0.753903 3 4 exp 500 ------- 1 1.0 9.0 11 25
r 0.756637 3 4 exp 500 ------- 0 0.0 8.0 10 16
+ 0.767887 3 4 exp 500 ------- 0 0.0 8.0 17 35
- 0.767887 3 4 exp 500 ------- 0 0.0 8.0 11 19
+ 0.785153 3 4 exp 500 ------- 1 1.0 9.0 12 26
r 0.787887 3 4 exp 500 ------- 1 1.0 9.0 5 15
+ 0.799137 3 4 exp 500 ------- 0 0.0 8.0 18 38
- 0.799137 3 4 exp 500 ------- 1 1.0 9.0 6 17
+ 0.816403 3 4 exp 500 ------- 1 1.0 9.0 13 28
r 0.819137 3 4 exp 500 ------- 0 0.0 8.0 11 19
+ 0.830387 3 4 exp 500 ------- 0 0.0 8.0 19 40
d 0.830387 3 4 exp 500 ------- 0 0.0 8.0 19 40
- 0.830387 3 4 exp 500 ------- 0 0.0 8.0 12 22
+ 0.847653 3 4 exp 500 ------- 1 1.0 9.0 14 29
r 0.850387 3 4 exp 500 ------- 1 1.0 9.0 6 17
+ 0.861637 3 4 exp 500 ------- 0 0.0 8.0 20 43
d 0.861637 3 4 exp 500 ------- 0 0.0 8.0 20 43
- 0.861637 3 4 exp 500 ------- 1 1.0 9.0 7 18
+ 0.878903 3 4 exp 500 ------- 1 1.0 9.0 15 31
r 0.881637 3 4 exp 500 ------- 0 0.0 8.0 12 22
+ 0.892887 3 4 exp 500 ------- 0 0.0 8.0 21 46
d 0.892887 3 4 exp 500 ------- 0 0.0 8.0 21 46
- 0.892887 3 4 exp 500 ------- 0 0.0 8.0 13 24
+ 0.910153 3 4 exp 500 ------- 1 1.0 9.0 16 33
r 0.912887 3 4 exp 500 ------- 1 1.0 9.0 7 18
+ 0.924137 3 4 exp 500 ------- 0 0.0 8.0 22 48
d 0.924137 3 4 exp 500 ------- 0 0.0 8.0 22 48
- 0.924137 3 4 exp 500 ------- 1 1.0 9.0 8 20
+ 0.941403 3 4 exp 500 ------- 1 1.0 9.0 17 34
r 0.944137 3 4 exp 500 ------- 0 0.0 8.0 13 24
+ 0.955387 3 4 exp 500 ------- 0 0.0 8.0 23 50
d 0.955387 3 4 exp 500 ------- 0 0.0 8.0 23 50
- 0.955387 3 4 exp 500 ------- 0 0.0 8.0 14 27
+ 0.972653 3 4 exp 500 ------- 1 1.0 9.0 18 36
r 0.975387 3 4 exp 500 ------- 1 1.0 9.0 8 20
+ 0.986637 3 4 exp 500 ------- 0 0.0 8.0 24 52
d 0.986637 3 4 exp 500 ------- 0 0.0 8.0 24 52
- 0.986637 3 4 exp 500 ------- 1 1.0 9.0 9 21
+ 1.003903 3 4 exp 500 ------- 1 1.0 9.0 19 37
r 1.006637 3 4 exp 500 ------- 0 0.0 8.0 14 27
+ 1.017887 3 4 exp 500 ------- 0 0.0 8.0 25 55
d 1.017887 3 4 exp 500 ------- 0 0.0 8.0 25 55
- 1.017887 3 4 exp 500 ------- 0 0.0 8.0 15 30
+ 1.035153 3 4 exp 500 ------- 1 1.0 9.0 20 39
r 1.037887 3 4 exp 500 ------- 1 1.0 9.0 9 21
+ 1.049137 3 4 exp 500 ------- 0 0.0 8.0 26 58
d 1.049137 3 4 exp 500 ------- 0 0.0 8.0 26 58
- 1.049137 3 4 exp 500 ------- 1 1.0 9.0 10 23
+ 1.066403 3 4 exp 500 ------- 1 1.0 9.0 21 41
r 1.069137 3 4 exp 500 ------- 0 0.0 8.0 15 30
+ 1.080387 3 4 exp 500 ------- 0 0.0 8.0 27 59
d 1.080387 3 4 exp 500 ------- 0 0.0 8.0 27 59
- 1.080387 3 4 exp 500 ------- 0 0.0 8.0 16 32
+ 1.097653 3 4 exp 500 ------- 1 1.0 9.0 22 42
r 1.100387 3 4 exp 500 ------- 1 1.0 9.0 10 23
+ 1.111637 3 4 exp 500 ------- 0 0.0 8.0 28 62
d 1.111637 3 4 exp 500 ------- 0 0.0 8.0 28 62
- 1.111637 3 4 exp 500 ------- 1 1.0 9.0 11 25
+ 1.128903 3 4 exp 500 ------- 1 1.0 9.0 23 44
r 1.131637 3 4 exp 500 ------- 0 0.0 8.0 16 32
+ 1.142887 3 4 exp 500 ------- 0 0.0 8.0 29 64
d 1.142887 3 4 exp 500 ------- 0 0.0 8.0 29 64
- 1.142887 3 4 exp 500 ------- 0 0.0 8.0 17 35
+ 1.160153 3 4 exp 500 ------- 1 1.0 9.0 24 45
r 1.162887 3 4 exp 500 ------- 1 1.0 9.0 11 25
+ 1.174137 3 4 exp 500 ------- 0 0.0 8.0 30 69
d 1.174137 3 4 exp 500 ------- 0 0.0 8.0 30 69
- 1.174137 3 4 exp 500 ------- 1 1.0 9.0 12 26
+ 1.191403 3 4 exp 500 ------- 1 1.0 9.0 25 47
r 1.194137 3 4 exp 500 ------- 0 0.0 8.0 17 35
+ 1.205387 3 4 exp 500 ------- 0 0.0 8.0 31 71
d 1.205387 3 4 exp 500 ------- 0 0.0 8.0 31 71
- 1.205387 3 4 exp 500 ------- 0 0.0 8.0 18 38
+ 1.222653 3 4 exp 500 ------- 1 1.0 9.0 26 49
r 1.225387 3 4 exp 500 ------- 1 1.0 9.0 12 26
+ 1.236637 3 4 exp 500 ------- 0 0.0 8.0 32 74
d 1.236637 3 4 exp 500 ------- 0 0.0 8.0 32 74
- 1.236637 3 4 exp 500 ------- 1 1.0 9.0 13 28
+ 1.253903 3 4 exp 500 ------- 1 1.0 9.0 27 51
r 1.256637 3 4 exp 500 ------- 0 0.0 8.0 18 38
+ 1.267887 3 4 exp 500 ------- 0 0.0 8.0 33 77
d 1.267887 3 4 exp 500 ------- 0 0.0 8.0 33 77
- 1.267887 3 4 exp 500 ------- 1 1.0 9.0 14 29
+ 1.285153 3 4 exp 500 ------- 1 1.0 9.0 28 53
r 1.287887 3 4 exp 500 ------- 1 1.0 9.0 13 28
+ 1.299137 3 4 exp 500 ------- 0 0.0 8.0 34 79
d 1.299137 3 4 exp 500 ------- 0 0.0 8.0 34 79
- 1.299137 3 4 exp 500 ------- 1 1.0 9.0 15 31
+ 1.316403 3 4 exp 500 ------- 1 1.0 9.0 29 54
r 1.319137 3 4 exp 500 ------- 1 1.0 9.0 14 29
- 1.330387 3 4 exp 500 ------- 1 1.0 9.0 16 33
+ 1.347653 3 4 exp 500 ------- 1 1.0 9.0 30 56
r 1.350387 3 4 exp 500 ------- 1 1.0 9.0 15 31
- 1.361637 3 4 exp 500 ------- 1 1.0 9.0 17 34
+ 1.378903 3 4 exp 500 ------- 1 1.0 9.0 31 57
r 1.381637 3 4 exp 500 ------- 1 1.0 9.0 16 33
- 1.392887 3 4 exp 500 ------- 1 1.0 9.0 18 36
+ 1.410153 3 4 exp 500 ------- 1 1.0 9.0 32 60
r 1.412887 3 4 exp 500 ------- 1 1.0 9.0 17 34
- 1.424137 3 4 exp 500 ------- 1 1.0 9.0 19 37
+ 1.441403 3 4 exp 500 ------- 1 1.0 9.0 33 61
r 1.444137 3 4 exp 500 ------- 1 1.0 9.0 18 36
- 1.455387 3 4 exp 500 ------- 1 1.0 9.0 20 39
+ 1.472653 3 4 exp 500 ------- 1 1.0 9.0 34 63
r 1.475387 3 4 exp 500 ------- 1 1.0 9.0 19 37
- 1.486637 3 4 exp 500 ------- 1 1.0 9.0 21 41
+ 1.503903 3 4 exp 500 ------- 1 1.0 9.0 35 65
r 1.506637 3 4 exp 500 ------- 1 1.0 9.0 20 39
- 1.517887 3 4 exp 500 ------- 1 1.0 9.0 22 42
+ 1.529911 3 4 exp 500 ------- 0 0.0 8.0 35 84
+ 1.535153 3 4 exp 500 ------- 1 1.0 9.0 36 66
d 1.535153 3 4 exp 500 ------- 1 1.0 9.0 36 66
r 1.537887 3 4 exp 500 ------- 1 1.0 9.0 21 41
- 1.549137 3 4 exp 500 ------- 1 1.0 9.0 23 44
+ 1.561161 3 4 exp 500 ------- 0 0.0 8.0 36 85
+ 1.566403 3 4 exp 500 ------- 1 1.0 9.0 37 67
d 1.566403 3 4 exp 500 ------- 1 1.0 9.0 37 67
r 1.569137 3 4 exp 500 ------- 1 1.0 9.0 22 42
- 1.580387 3 4 exp 500 ------- 1 1.0 9.0 24 45
+ 1.592411 3 4 exp 500 ------- 0 0.0 8.0 37 87
+ 1.597653 3 4 exp 500 ------- 1 1.0 9.0 38 68
d 1.597653 3 4 exp 500 ------- 1 1.0 9.0 38 68
r 1.600387 3 4 exp 500 ------- 1 1.0 9.0 23 44
- 1.611637 3 4 exp 500 ------- 1 1.0 9.0 25 47
+ 1.623661 3 4 exp 500 ------- 0 0.0 8.0 38 88
+ 1.628903 3 4 exp 500 ------- 1 1.0 9.0 39 70
d 1.628903 3 4 exp 500 ------- 1 1.0 9.0 39 70
r 1.631637 3 4 exp 500 ------- 1 1.0 9.0 24 45
- 1.642887 3 4 exp 500 ------- 1 1.0 9.0 26 49
+ 1.654911 3 4 exp 500 ------- 0 0.0 8.0 39 89
+ 1.660153 3 4 exp 500 ------- 1 1.0 9.0 40 72
d 1.660153 3 4 exp 500 ------- 1 1.0 9.0 40 72
r 1.662887 3 4 exp 500 ------- 1 1.0 9.0 25 47
- 1.674137 3 4 exp 500 ------- 1 1.0 9.0 27 51
+ 1.686161 3 4 exp 500 ------- 0 0.0 8.0 40 90
+ 1.691403 3 4 exp 500 ------- 1 1.0 9.0 41 73
d 1.691403 3 4 exp 500 ------- 1 1.0 9.0 41 73
r 1.694137 3 4 exp 500 ------- 1 1.0 9.0 26 49
- 1.705387 3 4 exp 500 ------- 1 1.0 9.0 28 53
+ 1.717411 3 4 exp 500 ------- 0 0.0 8.0 41 91
+ 1.722653 3 4 exp 500 ------- 1 1.0 9.0 42 75
d 1.722653 3 4 exp 500 ------- 1 1.0 9.0 42 75
r 1.725387 3 4 exp 500 ------- 1 1.0 9.0 27 51
- 1.736637 3 4 exp 500 ------- 1 1.0 9.0 29 54
+ 1.753903 3 4 exp 500 ------- 1 1.0 9.0 43 76
r 1.756637 3 4 exp 500 ------- 1 1.0 9.0 28 53
- 1.767887 3 4 exp 500 ------- 1 1.0 9.0 30 56
+ 1.785153 3 4 exp 500 ------- 1 1.0 9.0 44 78
r 1.787887 3 4 exp 500 ------- 1 1.0 9.0 29 54
- 1.799137 3 4 exp 500 ------- 1 1.0 9.0 31 57
+ 1.816403 3 4 exp 500 ------- 1 1.0 9.0 45 80
r 1.819137 3 4 exp 500 ------- 1 1.0 9.0 30 56
+ 1.82192 3 4 exp 500 ------- 0 0.0 8.0 42 93
d 1.82192 3 4 exp 500 ------- 0 0.0 8.0 42 93
- 1.830387 3 4 exp 500 ------- 1 1.0 9.0 32 60
+ 1.847653 3 4 exp 500 ------- 1 1.0 9.0 46 81
r 1.850387 3 4 exp 500 ------- 1 1.0 9.0 31 57
- 1.861637 3 4 exp 500 ------- 1 1.0 9.0 33 61
+ 1.878903 3 4 exp 500 ------- 1 1.0 9.0 47 82
r 1.881637 3 4 exp 500 ------- 1 1.0 9.0 32 60
- 1.892887 3 4 exp 500 ------- 1 1.0 9.0 34 63
+ 1.910153 3 4 exp 500 ------- 1 1.0 9.0 48 83
r 1.912887 3 4 exp 500 ------- 1 1.0 9.0 33 61
- 1.924137 3 4 exp 500 ------- 1 1.0 9.0 35 65
+ 1.938068 3 4 exp 500 ------- 0 0.0 8.0 43 101
+ 1.941403 3 4 exp 500 ------- 1 1.0 9.0 49 86
d 1.941403 3 4 exp 500 ------- 1 1.0 9.0 49 86
r 1.944137 3 4 exp 500 ------- 1 1.0 9.0 34 63
- 1.955387 3 4 exp 500 ------- 0 0.0 8.0 35 84
+ 1.969318 3 4 exp 500 ------- 0 0.0 8.0 44 104
+ 1.972653 3 4 exp 500 ------- 1 1.0 9.0 50 92
d 1.972653 3 4 exp 500 ------- 1 1.0 9.0 50 92
r 1.975387 3 4 exp 500 ------- 1 1.0 9.0 35 65
- 1.986637 3 4 exp 500 ------- 0 0.0 8.0 36 85
+ 2.000568 3 4 exp 500 ------- 0 0.0 8.0 45 106
+ 2.003903 3 4 exp 500 ------- 1 1.0 9.0 51 94
d 2.003903 3 4 exp 500 ------- 1 1.0 9.0 51 94
r 2.006637 3 4 exp 500 ------- 0 0.0 8.0 35 84
- 2.017887 3 4 exp 500 ------- 0 0.0 8.0 37 87
+ 2.031818 3 4 exp 500 ------- 0 0.0 8.0 46 107
+ 2.035153 3 4 exp 500 ------- 1 1.0 9.0 52 95
d 2.035153 3 4 exp 500 ------- 1 1.0 9.0 52 95
r 2.037887 3 4 exp 500 ------- 0 0.0 8.0 36 85
- 2.049137 3 4 exp 500 ------- 0 0.0 8.0 38 88
+ 2.063068 3 4 exp 500 ------- 0 0.0 8.0 47 108
+ 2.066403 3 4 exp 500 ------- 1 1.0 9.0 53 96
d 2.066403 3 4 exp 500 ------- 1 1.0 9.0 53 96
r 2.069137 3 4 exp 500 ------- 0 0.0 8.0 37 87
- 2.080387 3 4 exp 500 ------- 0 0.0 8.0 39 89
+ 2.094318 3 4 exp 500 ------- 0 0.0 8.0 48 111
+ 2.097653 3 4 exp 500 ------- 1 1.0 9.0 54 97
d 2.097653 3 4 exp 500 ------- 1 1.0 9.0 54 97
r 2.100387 3 4 exp 500 ------- 0 0.0 8.0 38 88
- 2.111637 3 4 exp 500 ------- 0 0.0 8.0 40 90
+ 2.128903 3 4 exp 500 ------- 1 1.0 9.0 55 98
r 2.131637 3 4 exp 500 ------- 0 0.0 8.0 39 89
- 2.142887 3 4 exp 500 ------- 0 0.0 8.0 41 91
+ 2.160153 3 4 exp 500 ------- 1 1.0 9.0 56 99
r 2.162887 3 4 exp 500 ------- 0 0.0 8.0 40 90
- 2.174137 3 4 exp 500 ------- 1 1.0 9.0 43 76
+ 2.191403 3 4 exp 500 ------- 1 1.0 9.0 57 100
r 2.194137 3 4 exp 500 ------- 0 0.0 8.0 41 91
- 2.205387 3 4 exp 500 ------- 1 1.0 9.0 44 78
+ 2.222653 3 4 exp 500 ------- 1 1.0 9.0 58 102
r 2.225387 3 4 exp 500 ------- 1 1.0 9.0 43 76
- 2.236637 3 4 exp 500 ------- 1 1.0 9.0 45 80
+ 2.253903 3 4 exp 500 ------- 1 1.0 9.0 59 103
r 2.256637 3 4 exp 500 ------- 1 1.0 9.0 44 78
+ 2.265622 3 4 exp 500 ------- 0 0.0 8.0 49 122
d 2.265622 3 4 exp 500 ------- 0 0.0 8.0 49 122
- 2.267887 3 4 exp 500 ------- 1 1.0 9.0 46 81
+ 2.285153 3 4 exp 500 ------- 1 1.0 9.0 60 105
r 2.287887 3 4 exp 500 ------- 1 1.0 9.0 45 80
- 2.299137 3 4 exp 500 ------- 1 1.0 9.0 47 82
+ 2.316403 3 4 exp 500 ------- 1 1.0 9.0 61 109
r 2.319137 3 4 exp 500 ------- 1 1.0 9.0 46 81
+ 2.319439 3 4 exp 500 ------- 0 0.0 8.0 50 124
d 2.319439 3 4 exp 500 ------- 0 0.0 8.0 50 124
- 2.330387 3 4 exp 500 ------- 1 1.0 9.0 48 83
+ 2.347653 3 4 exp 500 ------- 1 1.0 9.0 62 110
r 2.350387 3 4 exp 500 ------- 1 1.0 9.0 47 82
- 2.361637 3 4 exp 500 ------- 0 0.0 8.0 43 101
+ 2.378903 3 4 exp 500 ------- 1 1.0 9.0 63 112
r 2.381637 3 4 exp 500 ------- 1 1.0 9.0 48 83
- 2.392887 3 4 exp 500 ------- 0 0.0 8.0 44 104
+ 2.410153 3 4 exp 500 ------- 1 1.0 9.0 64 113
r 2.412887 3 4 exp 500 ------- 0 0.0 8.0 43 101
- 2.424137 3 4 exp 500 ------- 0 0.0 8.0 45 106
+ 2.436689 3 4 exp 500 ------- 0 0.0 8.0 51 128
+ 2.441403 3 4 exp 500 ------- 1 1.0 9.0 65 114
d 2.441403 3 4 exp 500 ------- 1 1.0 9.0 65 114
r 2.444137 3 4 exp 500 ------- 0 0.0 8.0 44 104
- 2.455387 3 4 exp 500 ------- 0 0.0 8.0 46 107
+ 2.467939 3 4 exp 500 ------- 0 0.0 8.0 52 131
+ 2.472653 3 4 exp 500 ------- 1 1.0 9.0 66 115
d 2.472653 3 4 exp 500 ------- 1 1.0 9.0 66 115
r 2.475387 3 4 exp 500 ------- 0 0.0 8.0 45 106
- 2.486637 3 4 exp 500 ------- 0 0.0 8.0 47 108
+ 2.499189 3 4 exp 500 ------- 0 0.0 8.0 53 134
+ 2.503903 3 4 exp 500 ------- 1 1.0 9.0 67 116
d 2.503903 3 4 exp 500 ------- 1 1.0 9.0 67 116
r 2.506637 3 4 exp 500 ------- 0 0.0 8.0 46 107
- 2.517887 3 4 exp 500 ------- 0 0.0 8.0 48 111
+ 2.530439 3 4 exp 500 ------- 0 0.0 8.0 54 136
+ 2.535153 3 4 exp 500 ------- 1 1.0 9.0 68 117
d 2.535153 3 4 exp 500 ------- 1 1.0 9.0 68 117
r 2.537887 3 4 exp 500 ------- 0 0.0 8.0 47 108
- 2.549137 3 4 exp 500 ------- 1 1.0 9.0 55 98
+ 2.561689 3 4 exp 500 ------- 0 0.0 8.0 55 139
+ 2.566403 3 4 exp 500 ------- 1 1.0 9.0 69 118
d 2.566403 3 4 exp 500 ------- 1 1.0 9.0 69 118
r 2.569137 3 4 exp 500 ------- 0 0.0 8.0 48 111
- 2.580387 3 4 exp 500 ------- 1 1.0 9.0 56 99
+ 2.597653 3 4 exp 500 ------- 1 1.0 9.0 70 119
r 2.600387 3 4 exp 500 ------- 1 1.0 9.0 55 98
- 2.611637 3 4 exp 500 ------- 1 1.0 9.0 57 100
+ 2.628903 3 4 exp 500 ------- 1 1.0 9.0 71 120
r 2.631637 3 4 exp 500 ------- 1 1.0 9.0 56 99
- 2.642887 3 4 exp 500 ------- 1 1.0 9.0 58 102
+ 2.660153 3 4 exp 500 ------- 1 1.0 9.0 72 121
r 2.662887 3 4 exp 500 ------- 1 1.0 9.0 57 100
- 2.674137 3 4 exp 500 ------- 1 1.0 9.0 59 103
+ 2.691403 3 4 exp 500 ------- 1 1.0 9.0 73 123
r 2.694137 3 4 exp 500 ------- 1 1.0 9.0 58 102
- 2.705387 3 4 exp 500 ------- 1 1.0 9.0 60 105
+ 2.722653 3 4 exp 500 ------- 1 1.0 9.0 74 125
r 2.725387 3 4 exp 500 ------- 1 1.0 9.0 59 103
- 2.736637 3 4 exp 500 ------- 1 1.0 9.0 61 109
+ 2.753903 3 4 exp 500 ------- 1 1.0 9.0 75 126
r 2.756637 3 4 exp 500 ------- 1 1.0 9.0 60 105
- 2.767887 3 4 exp 500 ------- 1 1.0 9.0 62 110
+ 2.785153 3 4 exp 500 ------- 1 1.0 9.0 76 127
r 2.787887 3 4 exp 500 ------- 1 1.0 9.0 61 109
- 2.799137 3 4 exp 500 ------- 1 1.0 9.0 63 112
+ 2.816403 3 4 exp 500 ------- 1 1.0 9.0 77 129
r 2.819137 3 4 exp 500 ------- 1 1.0 9.0 62 110
- 2.830387 3 4 exp 500 ------- 1 1.0 9.0 64 113
+ 2.847653 3 4 exp 500 ------- 1 1.0 9.0 78 130
r 2.850387 3 4 exp 500 ------- 1 1.0 9.0 63 112
- 2.861637 3 4 exp 500 ------- 0 0.0 8.0 51 128
+ 2.878903 3 4 exp 500 ------- 1 1.0 9.0 79 132
r 2.881637 3 4 exp 500 ------- 1 1.0 9.0 64 113
- 2.892887 3 4 exp 500 ------- 0 0.0 8.0 52 131
+ 2.910153 3 4 exp 500 ------- 1 1.0 9.0 80 133
r 2.912887 3 4 exp 500 ------- 0 0.0 8.0 51 128
- 2.924137 3 4 exp 500 ------- 0 0.0 8.0 53 134
+ 2.941403 3 4 exp 500 ------- 1 1.0 9.0 81 135
r 2.944137 3 4 exp 500 ------- 0 0.0 8.0 52 131
- 2.955387 3 4 exp 500 ------- 0 0.0 8.0 54 136
+ 2.972653 3 4 exp 500 ------- 1 1.0 9.0 82 137
r 2.975387 3 4 exp 500 ------- 0 0.0 8.0 53 134
- 2.986637 3 4 exp 500 ------- 0 0.0 8.0 55 139
