+ 0.236637 3 4 exp 500 ------- 0 1.0 8.0 0 0
- 0.236637 3 4 exp 500 ------- 0 1.0 8.0 0 0
+ 0.267887 3 4 exp 500 ------- 0 1.0 8.0 1 2
- 0.267887 3 4 exp 500 ------- 0 1.0 8.0 1 2
r 0.287887 3 4 exp 500 ------- 0 1.0 8.0 0 0
+ 0.299137 3 4 exp 500 ------- 0 1.0 8.0 2 3
- 0.299137 3 4 exp 500 ------- 0 1.0 8.0 2 3
+ 0.31042 3 4 exp 1000 ------- 0 2.0 10.0 0 1
r 0.319137 3 4 exp 500 ------- 0 1.0 8.0 1 2
+ 0.330387 3 4 exp 500 ------- 0 1.0 8.0 3 4
- 0.330387 3 4 exp 1000 ------- 0 2.0 10.0 0 1
r 0.350387 3 4 exp 500 ------- 0 1.0 8.0 2 3
+ 0.361637 3 4 exp 500 ------- 0 1.0 8.0 4 5
- 0.392887 3 4 exp 500 ------- 0 1.0 8.0 3 4
+ 0.392887 3 4 exp 500 ------- 0 1.0 8.0 5 7
+ 0.410153 3 4 exp 500 ------- 2 0.0 9.0 0 9
+ 0.410696 3 4 exp 1000 ------- 0 2.0 10.0 1 6
r 0.412887 3 4 exp 1000 ------- 0 2.0 10.0 0 1
+ 0.424137 3 4 exp 500 ------- 0 1.0 8.0 6 8
- 0.424137 3 4 exp 500 ------- 0 1.0 8.0 4 5
+ 0.441403 3 4 exp 500 ------- 2 0.0 9.0 1 11
r 0.444137 3 4 exp 500 ------- 0 1.0 8.0 3 4
+ 0.455387 3 4 exp 500 ------- 0 1.0 8.0 7 10
- 0.455387 3 4 exp 500 ------- 0 1.0 8.0 5 7
+ 0.472653 3 4 exp 500 ------- 2 0.0 9.0 2 12
r 0.475387 3 4 exp 500 ------- 0 1.0 8.0 4 5
+ 0.486637 3 4 exp 500 ------- 0 1.0 8.0 8 13
- 0.486637 3 4 exp 500 ------- 2 0.0 9.0 0 9
+ 0.503903 3 4 exp 500 ------- 2 0.0 9.0 3 14
r 0.506637 3 4 exp 500 ------- 0 1.0 8.0 5 7
+ 0.517887 3 4 exp 500 ------- 0 1.0 8.0 9 16
- 0.517887 3 4 exp 1000 ------- 0 2.0 10.0 1 6
+ 0.535153 3 4 exp 500 ------- 2 0.0 9.0 4 15
+ 0.535502 3 4 exp 1000 ------- 0 2.0 10.0 2 17
r 0.537887 3 4 exp 500 ------- 2 0.0 9.0 0 9
+ 0.549137 3 4 exp 500 ------- 0 1.0 8.0 10 19
+ 0.566403 3 4 exp 500 ------- 2 0.0 9.0 5 18
- 0.580387 3 4 exp 500 ------- 0 1.0 8.0 6 8
+ 0.580387 3 4 exp 500 ------- 0 1.0 8.0 11 22
+ 0.597653 3 4 exp 500 ------- 2 0.0 9.0 6 20
r 0.600387 3 4 exp 1000 ------- 0 2.0 10.0 1 6
+ 0.611637 3 4 exp 500 ------- 0 1.0 8.0 12 25
- 0.611637 3 4 exp 500 ------- 2 0.0 9.0 1 11
+ 0.615502 3 4 exp 1000 ------- 0 2.0 10.0 3 26
+ 0.628903 3 4 exp 500 ------- 2 0.0 9.0 7 21
r 0.631637 3 4 exp 500 ------- 0 1.0 8.0 6 8
+ 0.642887 3 4 exp 500 ------- 0 1.0 8.0 13 28
d 0.642887 3 4 exp 500 ------- 0 1.0 8.0 13 28
- 0.642887 3 4 exp 500 ------- 0 1.0 8.0 7 10
+ 0.660153 3 4 exp 500 ------- 2 0.0 9.0 8 23
r 0.662887 3 4 exp 500 ------- 2 0.0 9.0 1 11
+ 0.674137 3 4 exp 500 ------- 0 1.0 8.0 14 31
d 0.674137 3 4 exp 500 ------- 0 1.0 8.0 14 31
- 0.674137 3 4 exp 500 ------- 2 0.0 9.0 2 12
+ 0.691403 3 4 exp 500 ------- 2 0.0 9.0 9 24
r 0.694137 3 4 exp 500 ------- 0 1.0 8.0 7 10
+ 0.705387 3 4 exp 500 ------- 0 1.0 8.0 15 34
d 0.705387 3 4 exp 500 ------- 0 1.0 8.0 15 34
- 0.705387 3 4 exp 500 ------- 0 1.0 8.0 8 13
+ 0.713376 3 4 exp 1000 ------- 0 2.0 10.0 4 36
+ 0.722653 3 4 exp 500 ------- 2 0.0 9.0 10 27
d 0.722653 3 4 exp 500 ------- 2 0.0 9.0 10 27
r 0.725387 3 4 exp 500 ------- 2 0.0 9.0 2 12
+ 0.736637 3 4 exp 500 ------- 0 1.0 8.0 16 37
d 0.736637 3 4 exp 500 ------- 0 1.0 8.0 16 37
- 0.736637 3 4 exp 500 ------- 2 0.0 9.0 3 14
+ 0.753903 3 4 exp 500 ------- 2 0.0 9.0 11 29
r 0.756637 3 4 exp 500 ------- 0 1.0 8.0 8 13
+ 0.767887 3 4 exp 500 ------- 0 1.0 8.0 17 40
d 0.767887 3 4 exp 500 ------- 0 1.0 8.0 17 40
- 0.767887 3 4 exp 500 ------- 0 1.0 8.0 9 16
+ 0.785153 3 4 exp 500 ------- 2 0.0 9.0 12 30
r 0.787887 3 4 exp 500 ------- 2 0.0 9.0 3 14
+ 0.799137 3 4 exp 500 ------- 0 1.0 8.0 18 43
d 0.799137 3 4 exp 500 ------- 0 1.0 8.0 18 43
- 0.799137 3 4 exp 500 ------- 2 0.0 9.0 4 15
+ 0.816403 3 4 exp 500 ------- 2 0.0 9.0 13 32
r 0.819137 3 4 exp 500 ------- 0 1.0 8.0 9 16
+ 0.830387 3 4 exp 500 ------- 0 1.0 8.0 19 45
d 0.830387 3 4 exp 500 ------- 0 1.0 8.0 19 45
- 0.830387 3 4 exp 1000 ------- 0 2.0 10.0 2 17
+ 0.847653 3 4 exp 500 ------- 2 0.0 9.0 14 33
r 0.850387 3 4 exp 500 ------- 2 0.0 9.0 4 15
+ 0.861637 3 4 exp 500 ------- 0 1.0 8.0 20 48
d 0.861637 3 4 exp 500 ------- 0 1.0 8.0 20 48
+ 0.878903 3 4 exp 500 ------- 2 0.0 9.0 15 35
d 0.878903 3 4 exp 500 ------- 2 0.0 9.0 15 35
- 0.892887 3 4 exp 500 ------- 0 1.0 8.0 10 19
+ 0.892887 3 4 exp 500 ------- 0 1.0 8.0 21 51
+ 0.910153 3 4 exp 500 ------- 2 0.0 9.0 16 38
d 0.910153 3 4 exp 500 ------- 2 0.0 9.0 16 38
r 0.912887 3 4 exp 1000 ------- 0 2.0 10.0 2 17
+ 0.924137 3 4 exp 500 ------- 0 1.0 8.0 22 53
d 0.924137 3 4 exp 500 ------- 0 1.0 8.0 22 53
- 0.924137 3 4 exp 500 ------- 2 0.0 9.0 5 18
+ 0.941403 3 4 exp 500 ------- 2 0.0 9.0 17 39
r 0.944137 3 4 exp 500 ------- 0 1.0 8.0 10 19
+ 0.955387 3 4 exp 500 ------- 0 1.0 8.0 23 55
d 0.955387 3 4 exp 500 ------- 0 1.0 8.0 23 55
- 0.955387 3 4 exp 500 ------- 0 1.0 8.0 11 22
+ 0.972653 3 4 exp 500 ------- 2 0.0 9.0 18 41
r 0.975387 3 4 exp 500 ------- 2 0.0 9.0 5 18
+ 0.986637 3 4 exp 500 ------- 0 1.0 8.0 24 56
d 0.986637 3 4 exp 500 ------- 0 1.0 8.0 24 56
- 0.986637 3 4 exp 500 ------- 2 0.0 9.0 6 20
+ 1.003903 3 4 exp 500 ------- 2 0.0 9.0 19 42
r 1.006637 3 4 exp 500 ------- 0 1.0 8.0 11 22
+ 1.017887 3 4 exp 500 ------- 0 1.0 8.0 25 57
d 1.017887 3 4 exp 500 ------- 0 1.0 8.0 25 57
- 1.017887 3 4 exp 500 ------- 0 1.0 8.0 12 25
+ 1.035153 3 4 exp 500 ------- 2 0.0 9.0 20 44
r 1.037887 3 4 exp 500 ------- 2 0.0 9.0 6 20
+ 1.049137 3 4 exp 500 ------- 0 1.0 8.0 26 58
d 1.049137 3 4 exp 500 ------- 0 1.0 8.0 26 58
- 1.049137 3 4 exp 1000 ------- 0 2.0 10.0 3 26
+ 1.066403 3 4 exp 500 ------- 2 0.0 9.0 21 46
r 1.069137 3 4 exp 500 ------- 0 1.0 8.0 12 25
+ 1.080387 3 4 exp 500 ------- 0 1.0 8.0 27 59
d 1.080387 3 4 exp 500 ------- 0 1.0 8.0 27 59
+ 1.097653 3 4 exp 500 ------- 2 0.0 9.0 22 47
d 1.097653 3 4 exp 500 ------- 2 0.0 9.0 22 47
+ 1.10851 3 4 exp 1000 ------- 0 2.0 10.0 5 62
d 1.10851 3 4 exp 1000 ------- 0 2.0 10.0 5 62
- 1.111637 3 4 exp 500 ------- 2 0.0 9.0 7 21
+ 1.111637 3 4 exp 500 ------- 0 1.0 8.0 28 60
+ 1.128903 3 4 exp 500 ------- 2 0.0 9.0 23 49
d 1.128903 3 4 exp 500 ------- 2 0.0 9.0 23 49
r 1.131637 3 4 exp 1000 ------- 0 2.0 10.0 3 26
+ 1.142887 3 4 exp 500 ------- 0 1.0 8.0 29 61
d 1.142887 3 4 exp 500 ------- 0 1.0 8.0 29 61
- 1.142887 3 4 exp 500 ------- 2 0.0 9.0 8 23
+ 1.160153 3 4 exp 500 ------- 2 0.0 9.0 24 50
r 1.162887 3 4 exp 500 ------- 2 0.0 9.0 7 21
+ 1.174137 3 4 exp 500 ------- 0 1.0 8.0 30 66
d 1.174137 3 4 exp 500 ------- 0 1.0 8.0 30 66
- 1.174137 3 4 exp 500 ------- 2 0.0 9.0 9 24
+ 1.18851 3 4 exp 1000 ------- 0 2.0 10.0 6 67
+ 1.191403 3 4 exp 500 ------- 2 0.0 9.0 25 52
d 1.191403 3 4 exp 500 ------- 2 0.0 9.0 25 52
r 1.194137 3 4 exp 500 ------- 2 0.0 9.0 8 23
- 1.205387 3 4 exp 1000 ------- 0 2.0 10.0 4 36
+ 1.222653 3 4 exp 500 ------- 2 0.0 9.0 26 54
r 1.225387 3 4 exp 500 ------- 2 0.0 9.0 9 24
+ 1.253903 3 4 exp 500 ------- 2 0.0 9.0 27 63
d 1.253903 3 4 exp 500 ------- 2 0.0 9.0 27 63
+ 1.254529 3 4 exp 500 ------- 0 1.0 8.0 31 68
d 1.254529 3 4 exp 500 ------- 0 1.0 8.0 31 68
- 1.267887 3 4 exp 500 ------- 2 0.0 9.0 11 29
+ 1.285153 3 4 exp 500 ------- 2 0.0 9.0 28 64
r 1.287887 3 4 exp 1000 ------- 0 2.0 10.0 4 36
- 1.299137 3 4 exp 500 ------- 2 0.0 9.0 12 30
+ 1.316403 3 4 exp 500 ------- 2 0.0 9.0 29 65
r 1.319137 3 4 exp 500 ------- 2 0.0 9.0 11 29
- 1.330387 3 4 exp 500 ------- 2 0.0 9.0 13 32
+ 1.347653 3 4 exp 500 ------- 2 0.0 9.0 30 70
r 1.350387 3 4 exp 500 ------- 2 0.0 9.0 12 30
+ 1.357528 3 4 exp 500 ------- 0 1.0 8.0 32 71
d 1.357528 3 4 exp 500 ------- 0 1.0 8.0 32 71
+ 1.357991 3 4 exp 1000 ------- 0 2.0 10.0 7 69
d 1.357991 3 4 exp 1000 ------- 0 2.0 10.0 7 69
- 1.361637 3 4 exp 500 ------- 2 0.0 9.0 14 33
+ 1.378903 3 4 exp 500 ------- 2 0.0 9.0 31 72
r 1.381637 3 4 exp 500 ------- 2 0.0 9.0 13 32
+ 1.388778 3 4 exp 500 ------- 0 1.0 8.0 33 75
d 1.388778 3 4 exp 500 ------- 0 1.0 8.0 33 75
- 1.392887 3 4 exp 500 ------- 0 1.0 8.0 21 51
+ 1.410153 3 4 exp 500 ------- 2 0.0 9.0 32 73
r 1.412887 3 4 exp 500 ------- 2 0.0 9.0 14 33
- 1.424137 3 4 exp 500 ------- 2 0.0 9.0 17 39
+ 1.437991 3 4 exp 1000 ------- 0 2.0 10.0 8 74
+ 1.441403 3 4 exp 500 ------- 2 0.0 9.0 33 76
d 1.441403 3 4 exp 500 ------- 2 0.0 9.0 33 76
r 1.444137 3 4 exp 500 ------- 0 1.0 8.0 21 51
- 1.455387 3 4 exp 500 ------- 2 0.0 9.0 18 41
+ 1.472653 3 4 exp 500 ------- 2 0.0 9.0 34 77
r 1.475387 3 4 exp 500 ------- 2 0.0 9.0 17 39
- 1.486637 3 4 exp 500 ------- 2 0.0 9.0 19 42
+ 1.503903 3 4 exp 500 ------- 2 0.0 9.0 35 78
r 1.506637 3 4 exp 500 ------- 2 0.0 9.0 18 41
- 1.517887 3 4 exp 500 ------- 2 0.0 9.0 20 44
+ 1.532833 3 4 exp 1000 ------- 0 2.0 10.0 9 82
+ 1.535153 3 4 exp 500 ------- 2 0.0 9.0 36 79
d 1.535153 3 4 exp 500 ------- 2 0.0 9.0 36 79
r 1.537887 3 4 exp 500 ------- 2 0.0 9.0 19 42
- 1.549137 3 4 exp 500 ------- 2 0.0 9.0 21 46
+ 1.563574 3 4 exp 500 ------- 0 1.0 8.0 34 87
+ 1.566403 3 4 exp 500 ------- 2 0.0 9.0 37 80
d 1.566403 3 4 exp 500 ------- 2 0.0 9.0 37 80
r 1.569137 3 4 exp 500 ------- 2 0.0 9.0 20 44
- 1.580387 3 4 exp 500 ------- 0 1.0 8.0 28 60
+ 1.597653 3 4 exp 500 ------- 2 0.0 9.0 38 81
r 1.600387 3 4 exp 500 ------- 2 0.0 9.0 21 46
- 1.611637 3 4 exp 500 ------- 2 0.0 9.0 24 50
+ 1.628903 3 4 exp 500 ------- 2 0.0 9.0 39 83
+ 1.628955 3 4 exp 1000 ------- 0 2.0 10.0 10 88
d 1.628955 3 4 exp 1000 ------- 0 2.0 10.0 10 88
r 1.631637 3 4 exp 500 ------- 0 1.0 8.0 28 60
- 1.642887 3 4 exp 1000 ------- 0 2.0 10.0 6 67
+ 1.660153 3 4 exp 500 ------- 2 0.0 9.0 40 84
r 1.662887 3 4 exp 500 ------- 2 0.0 9.0 24 50
+ 1.680823 3 4 exp 500 ------- 0 1.0 8.0 35 91
d 1.680823 3 4 exp 500 ------- 0 1.0 8.0 35 91
+ 1.691403 3 4 exp 500 ------- 2 0.0 9.0 41 85
d 1.691403 3 4 exp 500 ------- 2 0.0 9.0 41 85
- 1.705387 3 4 exp 500 ------- 2 0.0 9.0 26 54
+ 1.708955 3 4 exp 1000 ------- 0 2.0 10.0 11 89
+ 1.712073 3 4 exp 500 ------- 0 1.0 8.0 36 93
d 1.712073 3 4 exp 500 ------- 0 1.0 8.0 36 93
+ 1.722653 3 4 exp 500 ------- 2 0.0 9.0 42 86
d 1.722653 3 4 exp 500 ------- 2 0.0 9.0 42 86
r 1.725387 3 4 exp 1000 ------- 0 2.0 10.0 6 67
- 1.736637 3 4 exp 500 ------- 2 0.0 9.0 28 64
+ 1.743323 3 4 exp 500 ------- 0 1.0 8.0 37 94
+ 1.753903 3 4 exp 500 ------- 2 0.0 9.0 43 90
d 1.753903 3 4 exp 500 ------- 2 0.0 9.0 43 90
r 1.756637 3 4 exp 500 ------- 2 0.0 9.0 26 54
- 1.767887 3 4 exp 500 ------- 2 0.0 9.0 29 65
+ 1.774573 3 4 exp 500 ------- 0 1.0 8.0 38 96
+ 1.785153 3 4 exp 500 ------- 2 0.0 9.0 44 92
d 1.785153 3 4 exp 500 ------- 2 0.0 9.0 44 92
r 1.787887 3 4 exp 500 ------- 2 0.0 9.0 28 64
- 1.799137 3 4 exp 500 ------- 2 0.0 9.0 30 70
+ 1.800896 3 4 exp 1000 ------- 0 2.0 10.0 12 95
+ 1.805823 3 4 exp 500 ------- 0 1.0 8.0 39 97
d 1.805823 3 4 exp 500 ------- 0 1.0 8.0 39 97
r 1.819137 3 4 exp 500 ------- 2 0.0 9.0 29 65
- 1.830387 3 4 exp 500 ------- 2 0.0 9.0 31 72
+ 1.837073 3 4 exp 500 ------- 0 1.0 8.0 40 98
r 1.850387 3 4 exp 500 ------- 2 0.0 9.0 30 70
- 1.861637 3 4 exp 500 ------- 2 0.0 9.0 32 73
+ 1.868323 3 4 exp 500 ------- 0 1.0 8.0 41 100
+ 1.880896 3 4 exp 1000 ------- 0 2.0 10.0 13 99
d 1.880896 3 4 exp 1000 ------- 0 2.0 10.0 13 99
r 1.881637 3 4 exp 500 ------- 2 0.0 9.0 31 72
- 1.892887 3 4 exp 1000 ------- 0 2.0 10.0 8 74
+ 1.899573 3 4 exp 500 ------- 0 1.0 8.0 42 101
r 1.912887 3 4 exp 500 ------- 2 0.0 9.0 32 73
- 1.955387 3 4 exp 500 ------- 2 0.0 9.0 34 77
r 1.975387 3 4 exp 1000 ------- 0 2.0 10.0 8 74
- 1.986637 3 4 exp 500 ------- 2 0.0 9.0 35 78
+ 1.996726 3 4 exp 500 ------- 2 0.0 9.0 45 103
r 2.006637 3 4 exp 500 ------- 2 0.0 9.0 34 77
+ 2.012811 3 4 exp 1000 ------- 0 2.0 10.0 14 102
- 2.017887 3 4 exp 1000 ------- 0 2.0 10.0 9 82
+ 2.027976 3 4 exp 500 ------- 2 0.0 9.0 46 104
r 2.037887 3 4 exp 500 ------- 2 0.0 9.0 35 78
+ 2.059226 3 4 exp 500 ------- 2 0.0 9.0 47 105
d 2.059226 3 4 exp 500 ------- 2 0.0 9.0 47 105
- 2.080387 3 4 exp 500 ------- 0 1.0 8.0 34 87
+ 2.090476 3 4 exp 500 ------- 2 0.0 9.0 48 107
+ 2.092811 3 4 exp 1000 ------- 0 2.0 10.0 15 106
d 2.092811 3 4 exp 1000 ------- 0 2.0 10.0 15 106
r 2.100387 3 4 exp 1000 ------- 0 2.0 10.0 9 82
+ 2.103629 3 4 exp 500 ------- 0 1.0 8.0 43 111
d 2.103629 3 4 exp 500 ------- 0 1.0 8.0 43 111
- 2.111637 3 4 exp 500 ------- 2 0.0 9.0 38 81
+ 2.121726 3 4 exp 500 ------- 2 0.0 9.0 49 108
r 2.131637 3 4 exp 500 ------- 0 1.0 8.0 34 87
+ 2.134879 3 4 exp 500 ------- 0 1.0 8.0 44 115
d 2.134879 3 4 exp 500 ------- 0 1.0 8.0 44 115
- 2.142887 3 4 exp 500 ------- 2 0.0 9.0 39 83
+ 2.152976 3 4 exp 500 ------- 2 0.0 9.0 50 109
r 2.162887 3 4 exp 500 ------- 2 0.0 9.0 38 81
+ 2.166129 3 4 exp 500 ------- 0 1.0 8.0 45 118
d 2.166129 3 4 exp 500 ------- 0 1.0 8.0 45 118
+ 2.172811 3 4 exp 1000 ------- 0 2.0 10.0 16 113
d 2.172811 3 4 exp 1000 ------- 0 2.0 10.0 16 113
- 2.174137 3 4 exp 500 ------- 2 0.0 9.0 40 84
+ 2.184226 3 4 exp 500 ------- 2 0.0 9.0 51 110
r 2.194137 3 4 exp 500 ------- 2 0.0 9.0 39 83
+ 2.197379 3 4 exp 500 ------- 0 1.0 8.0 46 120
d 2.197379 3 4 exp 500 ------- 0 1.0 8.0 46 120
- 2.205387 3 4 exp 1000 ------- 0 2.0 10.0 11 89
+ 2.215476 3 4 exp 500 ------- 2 0.0 9.0 52 112
r 2.225387 3 4 exp 500 ------- 2 0.0 9.0 40 84
+ 2.246726 3 4 exp 500 ------- 2 0.0 9.0 53 114
d 2.246726 3 4 exp 500 ------- 2 0.0 9.0 53 114
+ 2.252811 3 4 exp 1000 ------- 0 2.0 10.0 17 122
d 2.252811 3 4 exp 1000 ------- 0 2.0 10.0 17 122
- 2.267887 3 4 exp 500 ------- 0 1.0 8.0 37 94
+ 2.277976 3 4 exp 500 ------- 2 0.0 9.0 54 116
r 2.287887 3 4 exp 1000 ------- 0 2.0 10.0 11 89
- 2.299137 3 4 exp 500 ------- 0 1.0 8.0 38 96
+ 2.309226 3 4 exp 500 ------- 2 0.0 9.0 55 117
r 2.319137 3 4 exp 500 ------- 0 1.0 8.0 37 94
- 2.330387 3 4 exp 1000 ------- 0 2.0 10.0 12 95
+ 2.332811 3 4 exp 1000 ------- 0 2.0 10.0 18 124
+ 2.340476 3 4 exp 500 ------- 2 0.0 9.0 56 119
d 2.340476 3 4 exp 500 ------- 2 0.0 9.0 56 119
+ 2.346166 3 4 exp 500 ------- 0 1.0 8.0 47 127
d 2.346166 3 4 exp 500 ------- 0 1.0 8.0 47 127
r 2.350387 3 4 exp 500 ------- 0 1.0 8.0 38 96
+ 2.371726 3 4 exp 500 ------- 2 0.0 9.0 57 121
d 2.371726 3 4 exp 500 ------- 2 0.0 9.0 57 121
+ 2.377416 3 4 exp 500 ------- 0 1.0 8.0 48 129
d 2.377416 3 4 exp 500 ------- 0 1.0 8.0 48 129
- 2.392887 3 4 exp 500 ------- 0 1.0 8.0 40 98
+ 2.402976 3 4 exp 500 ------- 2 0.0 9.0 58 123
+ 2.412811 3 4 exp 1000 ------- 0 2.0 10.0 19 128
d 2.412811 3 4 exp 1000 ------- 0 2.0 10.0 19 128
r 2.412887 3 4 exp 1000 ------- 0 2.0 10.0 12 95
- 2.424137 3 4 exp 500 ------- 0 1.0 8.0 41 100
+ 2.434226 3 4 exp 500 ------- 2 0.0 9.0 59 125
r 2.444137 3 4 exp 500 ------- 0 1.0 8.0 40 98
- 2.455387 3 4 exp 500 ------- 0 1.0 8.0 42 101
+ 2.465476 3 4 exp 500 ------- 2 0.0 9.0 60 126
r 2.475387 3 4 exp 500 ------- 0 1.0 8.0 41 100
- 2.486637 3 4 exp 500 ------- 2 0.0 9.0 45 103
+ 2.496726 3 4 exp 500 ------- 2 0.0 9.0 61 130
r 2.506637 3 4 exp 500 ------- 0 1.0 8.0 42 101
+ 2.511182 3 4 exp 500 ------- 0 1.0 8.0 49 133
d 2.511182 3 4 exp 500 ------- 0 1.0 8.0 49 133
- 2.517887 3 4 exp 1000 ------- 0 2.0 10.0 14 102
+ 2.527976 3 4 exp 500 ------- 2 0.0 9.0 62 131
r 2.537887 3 4 exp 500 ------- 2 0.0 9.0 45 103
+ 2.542432 3 4 exp 500 ------- 0 1.0 8.0 50 137
d 2.542432 3 4 exp 500 ------- 0 1.0 8.0 50 137
+ 2.559226 3 4 exp 500 ------- 2 0.0 9.0 63 132
d 2.559226 3 4 exp 500 ------- 2 0.0 9.0 63 132
+ 2.578216 3 4 exp 1000 ------- 0 2.0 10.0 20 135
d 2.578216 3 4 exp 1000 ------- 0 2.0 10.0 20 135
- 2.580387 3 4 exp 500 ------- 2 0.0 9.0 46 104
+ 2.590476 3 4 exp 500 ------- 2 0.0 9.0 64 134
r 2.600387 3 4 exp 1000 ------- 0 2.0 10.0 14 102
- 2.611637 3 4 exp 500 ------- 2 0.0 9.0 48 107
+ 2.621726 3 4 exp 500 ------- 2 0.0 9.0 65 136
r 2.631637 3 4 exp 500 ------- 2 0.0 9.0 46 104
- 2.642887 3 4 exp 500 ------- 2 0.0 9.0 49 108
r 2.662887 3 4 exp 500 ------- 2 0.0 9.0 48 107
- 2.674137 3 4 exp 500 ------- 2 0.0 9.0 50 109
r 2.694137 3 4 exp 500 ------- 2 0.0 9.0 49 108
- 2.705387 3 4 exp 500 ------- 2 0.0 9.0 51 110
r 2.725387 3 4 exp 500 ------- 2 0.0 9.0 50 109
- 2.736637 3 4 exp 500 ------- 2 0.0 9.0 52 112
r 2.756637 3 4 exp 500 ------- 2 0.0 9.0 51 110
- 2.767887 3 4 exp 500 ------- 2 0.0 9.0 54 116
r 2.787887 3 4 exp 500 ------- 2 0.0 9.0 52 112
- 2.799137 3 4 exp 500 ------- 2 0.0 9.0 55 117
r 2.819137 3 4 exp 500 ------- 2 0.0 9.0 54 116
- 2.830387 3 4 exp 1000 ------- 0 2.0 10.0 18 124
r 2.850387 3 4 exp 500 ------- 2 0.0 9.0 55 117
- 2.892887 3 4 exp 500 ------- 2 0.0 9.0 58 123
r 2.912887 3 4 exp 1000 ------- 0 2.0 10.0 18 124
- 2.924137 3 4 exp 500 ------- 2 0.0 9.0 59 125
r 2.944137 3 4 exp 500 ------- 2 0.0 9.0 58 123
- 2.955387 3 4 exp 500 ------- 2 0.0 9.0 60 126
r 2.975387 3 4 exp 500 ------- 2 0.0 9.0 59 125
- 2.986637 3 4 exp 500 ------- 2 0.0 9.0 61 130
