+ 0.289387 2 3 exp 500 ------- 0 0.0 3.0 0 0
- 0.289387 2 3 exp 500 ------- 0 0.0 3.0 0 0
+ 0.316053 2 3 exp 500 ------- 0 0.0 3.0 1 1
- 0.320637 2 3 exp 500 ------- 0 0.0 3.0 1 1
+ 0.34272 2 3 exp 500 ------- 0 0.0 3.0 2 2
- 0.351887 2 3 exp 500 ------- 0 0.0 3.0 2 2
+ 0.369387 2 3 exp 500 ------- 0 0.0 3.0 3 3
- 0.383137 2 3 exp 500 ------- 0 0.0 3.0 3 3
+ 0.396053 2 3 exp 500 ------- 0 0.0 3.0 4 4
- 0.414387 2 3 exp 500 ------- 0 0.0 3.0 4 4
r 0.420637 2 3 exp 500 ------- 0 0.0 3.0 0 0
+ 0.42272 2 3 exp 500 ------- 0 0.0 3.0 5 5
- 0.445637 2 3 exp 500 ------- 0 0.0 3.0 5 5
+ 0.449387 2 3 exp 500 ------- 0 0.0 3.0 6 6
r 0.451887 2 3 exp 500 ------- 0 0.0 3.0 1 1
+ 0.462903 2 3 exp 500 ------- 1 1.0 3.1 0 7
+ 0.476053 2 3 exp 500 ------- 0 0.0 3.0 7 8
- 0.476887 2 3 exp 500 ------- 0 0.0 3.0 6 6
+ 0.478903 2 3 exp 500 ------- 1 1.0 3.1 1 9
r 0.483137 2 3 exp 500 ------- 0 0.0 3.0 2 2
+ 0.494903 2 3 exp 500 ------- 1 1.0 3.1 2 10
+ 0.50272 2 3 exp 500 ------- 0 0.0 3.0 8 11
- 0.508137 2 3 exp 500 ------- 1 1.0 3.1 0 7
+ 0.510903 2 3 exp 500 ------- 1 1.0 3.1 3 12
r 0.514387 2 3 exp 500 ------- 0 0.0 3.0 3 3
+ 0.526903 2 3 exp 500 ------- 1 1.0 3.1 4 13
+ 0.529387 2 3 exp 500 ------- 0 0.0 3.0 9 14
- 0.539387 2 3 exp 500 ------- 0 0.0 3.0 7 8
+ 0.542903 2 3 exp 500 ------- 1 1.0 3.1 5 15
r 0.545637 2 3 exp 500 ------- 0 0.0 3.0 4 4
+ 0.556053 2 3 exp 500 ------- 0 0.0 3.0 10 16
+ 0.558903 2 3 exp 500 ------- 1 1.0 3.1 6 17
- 0.570637 2 3 exp 500 ------- 1 1.0 3.1 1 9
+ 0.574903 2 3 exp 500 ------- 1 1.0 3.1 7 18
r 0.576887 2 3 exp 500 ------- 0 0.0 3.0 5 5
+ 0.58272 2 3 exp 500 ------- 0 0.0 3.0 11 19
+ 0.590903 2 3 exp 500 ------- 1 1.0 3.1 8 20
- 0.601887 2 3 exp 500 ------- 1 1.0 3.1 2 10
+ 0.606903 2 3 exp 500 ------- 1 1.0 3.1 9 21
r 0.608137 2 3 exp 500 ------- 0 0.0 3.0 6 6
+ 0.609387 2 3 exp 500 ------- 0 0.0 3.0 12 22
+ 0.622903 2 3 exp 500 ------- 1 1.0 3.1 10 23
- 0.633137 2 3 exp 500 ------- 0 0.0 3.0 8 11
+ 0.636053 2 3 exp 500 ------- 0 0.0 3.0 13 24
+ 0.638903 2 3 exp 500 ------- 1 1.0 3.1 11 25
r 0.639387 2 3 exp 500 ------- 1 1.0 3.1 0 7
+ 0.654903 2 3 exp 500 ------- 1 1.0 3.1 12 26
d 0.654903 2 3 exp 500 ------- 1 1.0 3.1 12 26
+ 0.66272 2 3 exp 500 ------- 0 0.0 3.0 14 27
d 0.66272 2 3 exp 500 ------- 0 0.0 3.0 14 27
- 0.664387 2 3 exp 500 ------- 1 1.0 3.1 3 12
r 0.670637 2 3 exp 500 ------- 0 0.0 3.0 7 8
+ 0.670903 2 3 exp 500 ------- 1 1.0 3.1 13 28
+ 0.686903 2 3 exp 500 ------- 1 1.0 3.1 14 29
d 0.686903 2 3 exp 500 ------- 1 1.0 3.1 14 29
+ 0.689387 2 3 exp 500 ------- 0 0.0 3.0 15 30
d 0.689387 2 3 exp 500 ------- 0 0.0 3.0 15 30
- 0.695637 2 3 exp 500 ------- 1 1.0 3.1 4 13
r 0.701887 2 3 exp 500 ------- 1 1.0 3.1 1 9
+ 0.702903 2 3 exp 500 ------- 1 1.0 3.1 15 31
+ 0.716053 2 3 exp 500 ------- 0 0.0 3.0 16 32
d 0.716053 2 3 exp 500 ------- 0 0.0 3.0 16 32
+ 0.718903 2 3 exp 500 ------- 1 1.0 3.1 16 33
d 0.718903 2 3 exp 500 ------- 1 1.0 3.1 16 33
- 0.726887 2 3 exp 500 ------- 0 0.0 3.0 9 14
r 0.733137 2 3 exp 500 ------- 1 1.0 3.1 2 10
+ 0.734903 2 3 exp 500 ------- 1 1.0 3.1 17 34
+ 0.74272 2 3 exp 500 ------- 0 0.0 3.0 17 35
d 0.74272 2 3 exp 500 ------- 0 0.0 3.0 17 35
+ 0.750903 2 3 exp 500 ------- 1 1.0 3.1 18 36
d 0.750903 2 3 exp 500 ------- 1 1.0 3.1 18 36
- 0.758137 2 3 exp 500 ------- 1 1.0 3.1 5 15
r 0.764387 2 3 exp 500 ------- 0 0.0 3.0 8 11
+ 0.766903 2 3 exp 500 ------- 1 1.0 3.1 19 37
+ 0.769387 2 3 exp 500 ------- 0 0.0 3.0 18 38
d 0.769387 2 3 exp 500 ------- 0 0.0 3.0 18 38
+ 0.782903 2 3 exp 500 ------- 1 1.0 3.1 20 39
d 0.782903 2 3 exp 500 ------- 1 1.0 3.1 20 39
- 0.789387 2 3 exp 500 ------- 0 0.0 3.0 10 16
r 0.795637 2 3 exp 500 ------- 1 1.0 3.1 3 12
+ 0.796053 2 3 exp 500 ------- 0 0.0 3.0 19 40
+ 0.798903 2 3 exp 500 ------- 1 1.0 3.1 21 41
d 0.798903 2 3 exp 500 ------- 1 1.0 3.1 21 41
+ 0.814903 2 3 exp 500 ------- 1 1.0 3.1 22 42
d 0.814903 2 3 exp 500 ------- 1 1.0 3.1 22 42
- 0.820637 2 3 exp 500 ------- 1 1.0 3.1 6 17
+ 0.82272 2 3 exp 500 ------- 0 0.0 3.0 20 43
r 0.826887 2 3 exp 500 ------- 1 1.0 3.1 4 13
+ 0.830903 2 3 exp 500 ------- 1 1.0 3.1 23 44
d 0.830903 2 3 exp 500 ------- 1 1.0 3.1 23 44
+ 0.846903 2 3 exp 500 ------- 1 1.0 3.1 24 45
d 0.846903 2 3 exp 500 ------- 1 1.0 3.1 24 45
+ 0.849387 2 3 exp 500 ------- 0 0.0 3.0 21 46
d 0.849387 2 3 exp 500 ------- 0 0.0 3.0 21 46
- 0.851887 2 3 exp 500 ------- 1 1.0 3.1 7 18
r 0.858137 2 3 exp 500 ------- 0 0.0 3.0 9 14
+ 0.862903 2 3 exp 500 ------- 1 1.0 3.1 25 47
+ 0.876053 2 3 exp 500 ------- 0 0.0 3.0 22 48
d 0.876053 2 3 exp 500 ------- 0 0.0 3.0 22 48
+ 0.878903 2 3 exp 500 ------- 1 1.0 3.1 26 49
d 0.878903 2 3 exp 500 ------- 1 1.0 3.1 26 49
- 0.883137 2 3 exp 500 ------- 0 0.0 3.0 11 19
r 0.889387 2 3 exp 500 ------- 1 1.0 3.1 5 15
+ 0.90272 2 3 exp 500 ------- 0 0.0 3.0 23 50
- 0.914387 2 3 exp 500 ------- 1 1.0 3.1 8 20
+ 0.917323 2 3 exp 500 ------- 1 1.0 3.1 27 51
r 0.920637 2 3 exp 500 ------- 0 0.0 3.0 10 16
+ 0.929387 2 3 exp 500 ------- 0 0.0 3.0 24 52
d 0.929387 2 3 exp 500 ------- 0 0.0 3.0 24 52
+ 0.933323 2 3 exp 500 ------- 1 1.0 3.1 28 53
d 0.933323 2 3 exp 500 ------- 1 1.0 3.1 28 53
- 0.945637 2 3 exp 500 ------- 1 1.0 3.1 9 21
+ 0.949323 2 3 exp 500 ------- 1 1.0 3.1 29 54
r 0.951887 2 3 exp 500 ------- 1 1.0 3.1 6 17
+ 0.956053 2 3 exp 500 ------- 0 0.0 3.0 25 55
d 0.956053 2 3 exp 500 ------- 0 0.0 3.0 25 55
+ 0.965323 2 3 exp 500 ------- 1 1.0 3.1 30 56
d 0.965323 2 3 exp 500 ------- 1 1.0 3.1 30 56
- 0.976887 2 3 exp 500 ------- 0 0.0 3.0 12 22
+ 0.981323 2 3 exp 500 ------- 1 1.0 3.1 31 57
+ 0.98272 2 3 exp 500 ------- 0 0.0 3.0 26 58
d 0.98272 2 3 exp 500 ------- 0 0.0 3.0 26 58
r 0.983137 2 3 exp 500 ------- 1 1.0 3.1 7 18
- 1.008137 2 3 exp 500 ------- 1 1.0 3.1 10 23
+ 1.009387 2 3 exp 500 ------- 0 0.0 3.0 27 59
r 1.014387 2 3 exp 500 ------- 0 0.0 3.0 11 19
+ 1.017598 2 3 exp 500 ------- 1 1.0 3.1 32 60
d 1.017598 2 3 exp 500 ------- 1 1.0 3.1 32 60
+ 1.033598 2 3 exp 500 ------- 1 1.0 3.1 33 61
d 1.033598 2 3 exp 500 ------- 1 1.0 3.1 33 61
+ 1.036053 2 3 exp 500 ------- 0 0.0 3.0 28 62
d 1.036053 2 3 exp 500 ------- 0 0.0 3.0 28 62
- 1.039387 2 3 exp 500 ------- 0 0.0 3.0 13 24
r 1.045637 2 3 exp 500 ------- 1 1.0 3.1 8 20
+ 1.049598 2 3 exp 500 ------- 1 1.0 3.1 34 63
+ 1.06272 2 3 exp 500 ------- 0 0.0 3.0 29 64
d 1.06272 2 3 exp 500 ------- 0 0.0 3.0 29 64
+ 1.065598 2 3 exp 500 ------- 1 1.0 3.1 35 65
d 1.065598 2 3 exp 500 ------- 1 1.0 3.1 35 65
- 1.070637 2 3 exp 500 ------- 1 1.0 3.1 11 25
r 1.076887 2 3 exp 500 ------- 1 1.0 3.1 9 21
+ 1.081598 2 3 exp 500 ------- 1 1.0 3.1 36 66
+ 1.097598 2 3 exp 500 ------- 1 1.0 3.1 37 67
d 1.097598 2 3 exp 500 ------- 1 1.0 3.1 37 67
- 1.101887 2 3 exp 500 ------- 1 1.0 3.1 13 28
r 1.108137 2 3 exp 500 ------- 0 0.0 3.0 12 22
+ 1.113598 2 3 exp 500 ------- 1 1.0 3.1 38 68
- 1.133137 2 3 exp 500 ------- 1 1.0 3.1 15 31
+ 1.134193 2 3 exp 500 ------- 0 0.0 3.0 30 69
r 1.139387 2 3 exp 500 ------- 1 1.0 3.1 10 23
+ 1.147472 2 3 exp 500 ------- 1 1.0 3.1 39 70
d 1.147472 2 3 exp 500 ------- 1 1.0 3.1 39 70
+ 1.16086 2 3 exp 500 ------- 0 0.0 3.0 31 71
d 1.16086 2 3 exp 500 ------- 0 0.0 3.0 31 71
+ 1.163472 2 3 exp 500 ------- 1 1.0 3.1 40 72
d 1.163472 2 3 exp 500 ------- 1 1.0 3.1 40 72
- 1.164387 2 3 exp 500 ------- 1 1.0 3.1 17 34
r 1.170637 2 3 exp 500 ------- 0 0.0 3.0 13 24
+ 1.179472 2 3 exp 500 ------- 1 1.0 3.1 41 73
+ 1.187526 2 3 exp 500 ------- 0 0.0 3.0 32 74
d 1.187526 2 3 exp 500 ------- 0 0.0 3.0 32 74
+ 1.195472 2 3 exp 500 ------- 1 1.0 3.1 42 75
d 1.195472 2 3 exp 500 ------- 1 1.0 3.1 42 75
- 1.195637 2 3 exp 500 ------- 1 1.0 3.1 19 37
r 1.201887 2 3 exp 500 ------- 1 1.0 3.1 11 25
+ 1.211472 2 3 exp 500 ------- 1 1.0 3.1 43 76
+ 1.214193 2 3 exp 500 ------- 0 0.0 3.0 33 77
d 1.214193 2 3 exp 500 ------- 0 0.0 3.0 33 77
- 1.226887 2 3 exp 500 ------- 0 0.0 3.0 19 40
+ 1.227472 2 3 exp 500 ------- 1 1.0 3.1 44 78
r 1.233137 2 3 exp 500 ------- 1 1.0 3.1 13 28
+ 1.24086 2 3 exp 500 ------- 0 0.0 3.0 34 79
d 1.24086 2 3 exp 500 ------- 0 0.0 3.0 34 79
+ 1.243472 2 3 exp 500 ------- 1 1.0 3.1 45 80
d 1.243472 2 3 exp 500 ------- 1 1.0 3.1 45 80
- 1.258137 2 3 exp 500 ------- 0 0.0 3.0 20 43
r 1.264387 2 3 exp 500 ------- 1 1.0 3.1 15 31
- 1.289387 2 3 exp 500 ------- 1 1.0 3.1 25 47
r 1.295637 2 3 exp 500 ------- 1 1.0 3.1 17 34
- 1.320637 2 3 exp 500 ------- 0 0.0 3.0 23 50
r 1.326887 2 3 exp 500 ------- 1 1.0 3.1 19 37
- 1.351887 2 3 exp 500 ------- 1 1.0 3.1 27 51
r 1.358137 2 3 exp 500 ------- 0 0.0 3.0 19 40
- 1.383137 2 3 exp 500 ------- 1 1.0 3.1 29 54
r 1.389387 2 3 exp 500 ------- 0 0.0 3.0 20 43
- 1.414387 2 3 exp 500 ------- 1 1.0 3.1 31 57
r 1.420637 2 3 exp 500 ------- 1 1.0 3.1 25 47
- 1.445637 2 3 exp 500 ------- 0 0.0 3.0 27 59
r 1.451887 2 3 exp 500 ------- 0 0.0 3.0 23 50
+ 1.476796 2 3 exp 500 ------- 1 1.0 3.1 46 81
- 1.476887 2 3 exp 500 ------- 1 1.0 3.1 34 63
r 1.483137 2 3 exp 500 ------- 1 1.0 3.1 27 51
+ 1.492796 2 3 exp 500 ------- 1 1.0 3.1 47 82
- 1.508137 2 3 exp 500 ------- 1 1.0 3.1 36 66
+ 1.508796 2 3 exp 500 ------- 1 1.0 3.1 48 83
r 1.514387 2 3 exp 500 ------- 1 1.0 3.1 29 54
- 1.539387 2 3 exp 500 ------- 1 1.0 3.1 38 68
r 1.545637 2 3 exp 500 ------- 1 1.0 3.1 31 57
- 1.570637 2 3 exp 500 ------- 0 0.0 3.0 30 69
r 1.576887 2 3 exp 500 ------- 0 0.0 3.0 27 59
+ 1.582661 2 3 exp 500 ------- 0 0.0 3.0 35 84
- 1.601887 2 3 exp 500 ------- 1 1.0 3.1 41 73
r 1.608137 2 3 exp 500 ------- 1 1.0 3.1 34 63
+ 1.609327 2 3 exp 500 ------- 0 0.0 3.0 36 85
+ 1.610679 2 3 exp 500 ------- 1 1.0 3.1 49 86
- 1.633137 2 3 exp 500 ------- 1 1.0 3.1 43 76
+ 1.635994 2 3 exp 500 ------- 0 0.0 3.0 37 87
r 1.639387 2 3 exp 500 ------- 1 1.0 3.1 36 66
+ 1.662661 2 3 exp 500 ------- 0 0.0 3.0 38 88
- 1.664387 2 3 exp 500 ------- 1 1.0 3.1 44 78
r 1.670637 2 3 exp 500 ------- 1 1.0 3.1 38 68
+ 1.689327 2 3 exp 500 ------- 0 0.0 3.0 39 89
- 1.695637 2 3 exp 500 ------- 1 1.0 3.1 46 81
r 1.701887 2 3 exp 500 ------- 0 0.0 3.0 30 69
+ 1.715994 2 3 exp 500 ------- 0 0.0 3.0 40 90
- 1.726887 2 3 exp 500 ------- 1 1.0 3.1 47 82
r 1.733137 2 3 exp 500 ------- 1 1.0 3.1 41 73
+ 1.742661 2 3 exp 500 ------- 0 0.0 3.0 41 91
- 1.758137 2 3 exp 500 ------- 1 1.0 3.1 48 83
r 1.764387 2 3 exp 500 ------- 1 1.0 3.1 43 76
- 1.789387 2 3 exp 500 ------- 0 0.0 3.0 35 84
r 1.795637 2 3 exp 500 ------- 1 1.0 3.1 44 78
- 1.820637 2 3 exp 500 ------- 0 0.0 3.0 36 85
r 1.826887 2 3 exp 500 ------- 1 1.0 3.1 46 81
- 1.851887 2 3 exp 500 ------- 1 1.0 3.1 49 86
r 1.858137 2 3 exp 500 ------- 1 1.0 3.1 47 82
+ 1.862978 2 3 exp 500 ------- 1 1.0 3.1 50 92
+ 1.87467 2 3 exp 500 ------- 0 0.0 3.0 42 93
+ 1.878978 2 3 exp 500 ------- 1 1.0 3.1 51 94
- 1.883137 2 3 exp 500 ------- 0 0.0 3.0 37 87
r 1.889387 2 3 exp 500 ------- 1 1.0 3.1 48 83
+ 1.894978 2 3 exp 500 ------- 1 1.0 3.1 52 95
+ 1.910978 2 3 exp 500 ------- 1 1.0 3.1 53 96
- 1.914387 2 3 exp 500 ------- 0 0.0 3.0 38 88
r 1.920637 2 3 exp 500 ------- 0 0.0 3.0 35 84
+ 1.926978 2 3 exp 500 ------- 1 1.0 3.1 54 97
+ 1.942978 2 3 exp 500 ------- 1 1.0 3.1 55 98
- 1.945637 2 3 exp 500 ------- 0 0.0 3.0 39 89
r 1.951887 2 3 exp 500 ------- 0 0.0 3.0 36 85
+ 1.958978 2 3 exp 500 ------- 1 1.0 3.1 56 99
+ 1.974978 2 3 exp 500 ------- 1 1.0 3.1 57 100
- 1.976887 2 3 exp 500 ------- 0 0.0 3.0 40 90
r 1.983137 2 3 exp 500 ------- 1 1.0 3.1 49 86
+ 1.990818 2 3 exp 500 ------- 0 0.0 3.0 43 101
+ 1.990978 2 3 exp 500 ------- 1 1.0 3.1 58 102
+ 2.006978 2 3 exp 500 ------- 1 1.0 3.1 59 103
- 2.008137 2 3 exp 500 ------- 0 0.0 3.0 41 91
r 2.014387 2 3 exp 500 ------- 0 0.0 3.0 37 87
+ 2.017484 2 3 exp 500 ------- 0 0.0 3.0 44 104
+ 2.022978 2 3 exp 500 ------- 1 1.0 3.1 60 105
- 2.039387 2 3 exp 500 ------- 1 1.0 3.1 50 92
+ 2.044151 2 3 exp 500 ------- 0 0.0 3.0 45 106
r 2.045637 2 3 exp 500 ------- 0 0.0 3.0 38 88
- 2.070637 2 3 exp 500 ------- 0 0.0 3.0 42 93
+ 2.070818 2 3 exp 500 ------- 0 0.0 3.0 46 107
r 2.076887 2 3 exp 500 ------- 0 0.0 3.0 39 89
+ 2.097484 2 3 exp 500 ------- 0 0.0 3.0 47 108
d 2.097484 2 3 exp 500 ------- 0 0.0 3.0 47 108
- 2.101887 2 3 exp 500 ------- 1 1.0 3.1 51 94
r 2.108137 2 3 exp 500 ------- 0 0.0 3.0 40 90
+ 2.11531 2 3 exp 500 ------- 1 1.0 3.1 61 109
+ 2.13131 2 3 exp 500 ------- 1 1.0 3.1 62 110
d 2.13131 2 3 exp 500 ------- 1 1.0 3.1 62 110
- 2.133137 2 3 exp 500 ------- 1 1.0 3.1 52 95
+ 2.138993 2 3 exp 500 ------- 0 0.0 3.0 48 111
r 2.139387 2 3 exp 500 ------- 0 0.0 3.0 41 91
+ 2.14731 2 3 exp 500 ------- 1 1.0 3.1 63 112
d 2.14731 2 3 exp 500 ------- 1 1.0 3.1 63 112
+ 2.16331 2 3 exp 500 ------- 1 1.0 3.1 64 113
d 2.16331 2 3 exp 500 ------- 1 1.0 3.1 64 113
- 2.164387 2 3 exp 500 ------- 1 1.0 3.1 53 96
r 2.170637 2 3 exp 500 ------- 1 1.0 3.1 50 92
+ 2.195432 2 3 exp 500 ------- 1 1.0 3.1 65 114
- 2.195637 2 3 exp 500 ------- 1 1.0 3.1 54 97
r 2.201887 2 3 exp 500 ------- 0 0.0 3.0 42 93
+ 2.211432 2 3 exp 500 ------- 1 1.0 3.1 66 115
- 2.226887 2 3 exp 500 ------- 1 1.0 3.1 55 98
+ 2.227432 2 3 exp 500 ------- 1 1.0 3.1 67 116
r 2.233137 2 3 exp 500 ------- 1 1.0 3.1 51 94
+ 2.243432 2 3 exp 500 ------- 1 1.0 3.1 68 117
d 2.243432 2 3 exp 500 ------- 1 1.0 3.1 68 117
- 2.258137 2 3 exp 500 ------- 1 1.0 3.1 56 99
+ 2.259432 2 3 exp 500 ------- 1 1.0 3.1 69 118
r 2.264387 2 3 exp 500 ------- 1 1.0 3.1 52 95
+ 2.275432 2 3 exp 500 ------- 1 1.0 3.1 70 119
d 2.275432 2 3 exp 500 ------- 1 1.0 3.1 70 119
- 2.289387 2 3 exp 500 ------- 1 1.0 3.1 57 100
+ 2.291432 2 3 exp 500 ------- 1 1.0 3.1 71 120
r 2.295637 2 3 exp 500 ------- 1 1.0 3.1 53 96
+ 2.307432 2 3 exp 500 ------- 1 1.0 3.1 72 121
d 2.307432 2 3 exp 500 ------- 1 1.0 3.1 72 121
+ 2.318372 2 3 exp 500 ------- 0 0.0 3.0 49 122
d 2.318372 2 3 exp 500 ------- 0 0.0 3.0 49 122
- 2.320637 2 3 exp 500 ------- 0 0.0 3.0 43 101
+ 2.323432 2 3 exp 500 ------- 1 1.0 3.1 73 123
r 2.326887 2 3 exp 500 ------- 1 1.0 3.1 54 97
- 2.351887 2 3 exp 500 ------- 1 1.0 3.1 58 102
r 2.358137 2 3 exp 500 ------- 1 1.0 3.1 55 98
+ 2.372189 2 3 exp 500 ------- 0 0.0 3.0 50 124
- 2.383137 2 3 exp 500 ------- 1 1.0 3.1 59 103
r 2.389387 2 3 exp 500 ------- 1 1.0 3.1 56 99
- 2.414387 2 3 exp 500 ------- 0 0.0 3.0 44 104
r 2.420637 2 3 exp 500 ------- 1 1.0 3.1 57 100
+ 2.429691 2 3 exp 500 ------- 1 1.0 3.1 74 125
- 2.445637 2 3 exp 500 ------- 1 1.0 3.1 60 105
r 2.451887 2 3 exp 500 ------- 0 0.0 3.0 43 101
+ 2.457632 2 3 exp 500 ------- 1 1.0 3.1 75 126
+ 2.473632 2 3 exp 500 ------- 1 1.0 3.1 76 127
- 2.476887 2 3 exp 500 ------- 0 0.0 3.0 45 106
r 2.483137 2 3 exp 500 ------- 1 1.0 3.1 58 102
+ 2.489439 2 3 exp 500 ------- 0 0.0 3.0 51 128
+ 2.489632 2 3 exp 500 ------- 1 1.0 3.1 77 129
d 2.489632 2 3 exp 500 ------- 1 1.0 3.1 77 129
+ 2.505632 2 3 exp 500 ------- 1 1.0 3.1 78 130
d 2.505632 2 3 exp 500 ------- 1 1.0 3.1 78 130
- 2.508137 2 3 exp 500 ------- 0 0.0 3.0 46 107
r 2.514387 2 3 exp 500 ------- 1 1.0 3.1 59 103
+ 2.516105 2 3 exp 500 ------- 0 0.0 3.0 52 131
+ 2.521632 2 3 exp 500 ------- 1 1.0 3.1 79 132
d 2.521632 2 3 exp 500 ------- 1 1.0 3.1 79 132
+ 2.537632 2 3 exp 500 ------- 1 1.0 3.1 80 133
d 2.537632 2 3 exp 500 ------- 1 1.0 3.1 80 133
- 2.539387 2 3 exp 500 ------- 1 1.0 3.1 61 109
+ 2.542772 2 3 exp 500 ------- 0 0.0 3.0 53 134
r 2.545637 2 3 exp 500 ------- 0 0.0 3.0 44 104
+ 2.553632 2 3 exp 500 ------- 1 1.0 3.1 81 135
d 2.553632 2 3 exp 500 ------- 1 1.0 3.1 81 135
+ 2.569439 2 3 exp 500 ------- 0 0.0 3.0 54 136
d 2.569439 2 3 exp 500 ------- 0 0.0 3.0 54 136
+ 2.569632 2 3 exp 500 ------- 1 1.0 3.1 82 137
d 2.569632 2 3 exp 500 ------- 1 1.0 3.1 82 137
- 2.570637 2 3 exp 500 ------- 0 0.0 3.0 48 111
r 2.576887 2 3 exp 500 ------- 1 1.0 3.1 60 105
+ 2.585632 2 3 exp 500 ------- 1 1.0 3.1 83 138
+ 2.596105 2 3 exp 500 ------- 0 0.0 3.0 55 139
d 2.596105 2 3 exp 500 ------- 0 0.0 3.0 55 139
+ 2.601632 2 3 exp 500 ------- 1 1.0 3.1 84 140
d 2.601632 2 3 exp 500 ------- 1 1.0 3.1 84 140
- 2.601887 2 3 exp 500 ------- 1 1.0 3.1 65 114
r 2.608137 2 3 exp 500 ------- 0 0.0 3.0 45 106
- 2.633137 2 3 exp 500 ------- 1 1.0 3.1 66 115
r 2.639387 2 3 exp 500 ------- 0 0.0 3.0 46 107
- 2.664387 2 3 exp 500 ------- 1 1.0 3.1 67 116
r 2.670637 2 3 exp 500 ------- 1 1.0 3.1 61 109
- 2.695637 2 3 exp 500 ------- 1 1.0 3.1 69 118
r 2.701887 2 3 exp 500 ------- 0 0.0 3.0 48 111
- 2.726887 2 3 exp 500 ------- 1 1.0 3.1 71 120
r 2.733137 2 3 exp 500 ------- 1 1.0 3.1 65 114
- 2.758137 2 3 exp 500 ------- 1 1.0 3.1 73 123
r 2.764387 2 3 exp 500 ------- 1 1.0 3.1 66 115
- 2.789387 2 3 exp 500 ------- 0 0.0 3.0 50 124
r 2.795637 2 3 exp 500 ------- 1 1.0 3.1 67 116
- 2.820637 2 3 exp 500 ------- 1 1.0 3.1 74 125
r 2.826887 2 3 exp 500 ------- 1 1.0 3.1 69 118
- 2.851887 2 3 exp 500 ------- 1 1.0 3.1 75 126
r 2.858137 2 3 exp 500 ------- 1 1.0 3.1 71 120
- 2.883137 2 3 exp 500 ------- 1 1.0 3.1 76 127
r 2.889387 2 3 exp 500 ------- 1 1.0 3.1 73 123
- 2.914387 2 3 exp 500 ------- 0 0.0 3.0 51 128
r 2.920637 2 3 exp 500 ------- 0 0.0 3.0 50 124
- 2.945637 2 3 exp 500 ------- 0 0.0 3.0 52 131
r 2.951887 2 3 exp 500 ------- 1 1.0 3.1 74 125
- 2.976887 2 3 exp 500 ------- 0 0.0 3.0 53 134
r 2.983137 2 3 exp 500 ------- 1 1.0 3.1 75 126
